boundary p p p
units lj
atom_style atomic
read_data NVT/big_sim/T_1.00__v_24.44/lattice.data
  orthogonal box = (-15.511 -15.511 -15.511) to (15.511 15.511 15.511)
  1 by 1 by 1 MPI processor grid
  reading atoms ...
  1331 atoms
  read_data CPU = 0.00524713 secs

mass 1 1.000000
pair_style lj/cut 3.000000
pair_modify shift yes
pair_coeff 1 1 1.0 1.0

velocity all create 1.000000 72590 mom yes rot yes

neighbor 0.300000 bin
neigh_modify every 20 delay 0 check no

timestep 0.004000

fix 1 all nvt temp 1.000000 1.000000 0.800000

dump dumpeq all dcd 1000 NVT/big_sim/T_1.00__v_24.44/trajectory.dcd

thermo 100
thermo_style custom step temp press etotal pe

log NVT/big_sim/T_1.00__v_24.44/results.log
