LAMMPS (3 Mar 2020)
log NVT/big_sim/T_1.20__v_40.00/settings.log
