boundary p p p
units lj
atom_style atomic
read_data lattice_11_11_11__2_2_2/lattice_11_11_11__2_2_2.data
  orthogonal box = (-11 -11 -11) to (11 11 11)
  1 by 1 by 1 MPI processor grid
  reading atoms ...
  1331 atoms
  read_data CPU = 0.00192778 secs

mass 1 1.000000
pair_style lj/cut 2.500000
pair_modify shift yes
pair_coeff 1 1 1.0 1.0

velocity all create 1.100000 56723 mom yes rot yes

neighbor 0.300000 bin
neigh_modify every 20 delay 0 check no

timestep 0.004000

fix 1 all npt temp 1.100000 1.100000 2.000000 iso 1.100000 1.100000 5.000000

dump dumpeq all dcd 1000 lattice_11_11_11__2_2_2/sim1/T_1.10__P_1.10/trajectory.dcd

thermo 1000
thermo_style custom step temp press vol density pe ke etotal

log lattice_11_11_11__2_2_2/sim1/T_1.10__P_1.10/results.log
