boundary p p p
units lj
atom_style atomic
read_data NVT/sim1/T_0.20__v_10.65/lattice.data
  orthogonal box = (-12 -12 -12) to (12 12 12)
  1 by 1 by 1 MPI processor grid
  reading atoms ...
  1331 atoms
  read_data CPU = 0.00157342 secs

mass 1 1.000000
pair_style lj/cut 2.500000
pair_modify shift yes
pair_coeff 1 1 1.0 1.0

velocity all create 0.200000 95866 mom yes rot yes

neighbor 0.300000 bin
neigh_modify every 20 delay 0 check no

timestep 0.004000

fix 1 all nvt temp 0.200000 0.200000 2.000000

dump dumpeq all dcd 1000 NVT/sim1/T_0.20__v_10.65/trajectory.dcd

thermo 1000
thermo_style custom step temp press etotal

log NVT/sim1/T_0.20__v_10.65/results.log
