boundary p p p
units lj
atom_style atomic
read_data NVT/testing/T_1.75__v_5.83/lattice.data
  orthogonal box = (-10 -10 -10) to (10 10 10)
  1 by 1 by 1 MPI processor grid
  reading atoms ...
  1331 atoms
  read_data CPU = 0.00982564 secs

mass 1 1.000000
pair_style lj/cut 2.500000
pair_modify shift yes
pair_coeff 1 1 1.0 1.0

velocity all create 1.750000 26871 mom yes rot yes dist gaussian

neighbor 0.300000 bin
neigh_modify every 20 delay 0 check no

timestep 0.004000

fix 1 all nvt temp 1.750000 1.750000 0.800000

dump dumpeq all dcd 1000 NVT/testing/T_1.75__v_5.83/trajectory.dcd

thermo 100
thermo_style custom step temp press etotal pe

log NVT/testing/T_1.75__v_5.83/results.log
