LAMMPS (3 Mar 2020)
#---------------------------------------------------------------------
#  LJ.inp
#
#  run a simulation in NpT ensemble
#
#  in comments: ts = timestep
#---------------------------------------------------------------------
log settings.log
