boundary p p p
units lj
atom_style atomic
read_data NVT/big_sim/T_1.20__v_1.44/lattice.data
  orthogonal box = (-6.65202 -6.65202 -6.65202) to (6.65202 6.65202 6.65202)
  1 by 1 by 1 MPI processor grid
  reading atoms ...
  1331 atoms
  read_data CPU = 0.00252798 secs

mass 1 1.000000
pair_style lj/cut 3.000000
pair_modify shift yes
pair_coeff 1 1 1.0 1.0

velocity all create 1.200000 53893 mom yes rot yes

neighbor 0.300000 bin
neigh_modify every 20 delay 0 check no

timestep 0.004000

fix 1 all nvt temp 1.200000 1.200000 0.800000

dump dumpeq all dcd 1000 NVT/big_sim/T_1.20__v_1.44/trajectory.dcd

thermo 100
thermo_style custom step temp press etotal pe

log NVT/big_sim/T_1.20__v_1.44/results.log
