boundary p p p
units lj
atom_style atomic
read_data NVT/big_sim/T_3.50__v_2.62/lattice.data
  orthogonal box = (-7.88976 -7.88976 -7.88976) to (7.88976 7.88976 7.88976)
  1 by 1 by 1 MPI processor grid
  reading atoms ...
  1331 atoms
  read_data CPU = 0.00631013 secs

mass 1 1.000000
pair_style lj/cut 3.000000
pair_modify shift yes
pair_coeff 1 1 1.0 1.0

velocity all create 3.500000 20015 mom yes rot yes

neighbor 0.300000 bin
neigh_modify every 20 delay 0 check no

timestep 0.004000

fix 1 all nvt temp 3.500000 3.500000 0.800000

dump dumpeq all dcd 1000 NVT/big_sim/T_3.50__v_2.62/trajectory.dcd

thermo 100
thermo_style custom step temp press etotal pe

log NVT/big_sim/T_3.50__v_2.62/results.log
