LAMMPS data file for Nanoparticles
   1331 atoms
1 atom types
  -13.0000000000   13.0000000000 xlo xhi
  -13.0000000000   13.0000000000 ylo yhi
  -13.0000000000   13.0000000000 zlo zhi
 
Atoms
 
    1 1   -12.0000   -12.0000   -12.0000 0 0 0
    2 1   -12.0000   -12.0000    -9.6000 0 0 0
    3 1   -12.0000   -12.0000    -7.2000 0 0 0
    4 1   -12.0000   -12.0000    -4.8000 0 0 0
    5 1   -12.0000   -12.0000    -2.4000 0 0 0
    6 1   -12.0000   -12.0000     0.0000 0 0 0
    7 1   -12.0000   -12.0000     2.4000 0 0 0
    8 1   -12.0000   -12.0000     4.8000 0 0 0
    9 1   -12.0000   -12.0000     7.2000 0 0 0
   10 1   -12.0000   -12.0000     9.6000 0 0 0
   11 1   -12.0000   -12.0000    12.0000 0 0 0
   12 1   -12.0000    -9.6000   -12.0000 0 0 0
   13 1   -12.0000    -9.6000    -9.6000 0 0 0
   14 1   -12.0000    -9.6000    -7.2000 0 0 0
   15 1   -12.0000    -9.6000    -4.8000 0 0 0
   16 1   -12.0000    -9.6000    -2.4000 0 0 0
   17 1   -12.0000    -9.6000     0.0000 0 0 0
   18 1   -12.0000    -9.6000     2.4000 0 0 0
   19 1   -12.0000    -9.6000     4.8000 0 0 0
   20 1   -12.0000    -9.6000     7.2000 0 0 0
   21 1   -12.0000    -9.6000     9.6000 0 0 0
   22 1   -12.0000    -9.6000    12.0000 0 0 0
   23 1   -12.0000    -7.2000   -12.0000 0 0 0
   24 1   -12.0000    -7.2000    -9.6000 0 0 0
   25 1   -12.0000    -7.2000    -7.2000 0 0 0
   26 1   -12.0000    -7.2000    -4.8000 0 0 0
   27 1   -12.0000    -7.2000    -2.4000 0 0 0
   28 1   -12.0000    -7.2000     0.0000 0 0 0
   29 1   -12.0000    -7.2000     2.4000 0 0 0
   30 1   -12.0000    -7.2000     4.8000 0 0 0
   31 1   -12.0000    -7.2000     7.2000 0 0 0
   32 1   -12.0000    -7.2000     9.6000 0 0 0
   33 1   -12.0000    -7.2000    12.0000 0 0 0
   34 1   -12.0000    -4.8000   -12.0000 0 0 0
   35 1   -12.0000    -4.8000    -9.6000 0 0 0
   36 1   -12.0000    -4.8000    -7.2000 0 0 0
   37 1   -12.0000    -4.8000    -4.8000 0 0 0
   38 1   -12.0000    -4.8000    -2.4000 0 0 0
   39 1   -12.0000    -4.8000     0.0000 0 0 0
   40 1   -12.0000    -4.8000     2.4000 0 0 0
   41 1   -12.0000    -4.8000     4.8000 0 0 0
   42 1   -12.0000    -4.8000     7.2000 0 0 0
   43 1   -12.0000    -4.8000     9.6000 0 0 0
   44 1   -12.0000    -4.8000    12.0000 0 0 0
   45 1   -12.0000    -2.4000   -12.0000 0 0 0
   46 1   -12.0000    -2.4000    -9.6000 0 0 0
   47 1   -12.0000    -2.4000    -7.2000 0 0 0
   48 1   -12.0000    -2.4000    -4.8000 0 0 0
   49 1   -12.0000    -2.4000    -2.4000 0 0 0
   50 1   -12.0000    -2.4000     0.0000 0 0 0
   51 1   -12.0000    -2.4000     2.4000 0 0 0
   52 1   -12.0000    -2.4000     4.8000 0 0 0
   53 1   -12.0000    -2.4000     7.2000 0 0 0
   54 1   -12.0000    -2.4000     9.6000 0 0 0
   55 1   -12.0000    -2.4000    12.0000 0 0 0
   56 1   -12.0000     0.0000   -12.0000 0 0 0
   57 1   -12.0000     0.0000    -9.6000 0 0 0
   58 1   -12.0000     0.0000    -7.2000 0 0 0
   59 1   -12.0000     0.0000    -4.8000 0 0 0
   60 1   -12.0000     0.0000    -2.4000 0 0 0
   61 1   -12.0000     0.0000     0.0000 0 0 0
   62 1   -12.0000     0.0000     2.4000 0 0 0
   63 1   -12.0000     0.0000     4.8000 0 0 0
   64 1   -12.0000     0.0000     7.2000 0 0 0
   65 1   -12.0000     0.0000     9.6000 0 0 0
   66 1   -12.0000     0.0000    12.0000 0 0 0
   67 1   -12.0000     2.4000   -12.0000 0 0 0
   68 1   -12.0000     2.4000    -9.6000 0 0 0
   69 1   -12.0000     2.4000    -7.2000 0 0 0
   70 1   -12.0000     2.4000    -4.8000 0 0 0
   71 1   -12.0000     2.4000    -2.4000 0 0 0
   72 1   -12.0000     2.4000     0.0000 0 0 0
   73 1   -12.0000     2.4000     2.4000 0 0 0
   74 1   -12.0000     2.4000     4.8000 0 0 0
   75 1   -12.0000     2.4000     7.2000 0 0 0
   76 1   -12.0000     2.4000     9.6000 0 0 0
   77 1   -12.0000     2.4000    12.0000 0 0 0
   78 1   -12.0000     4.8000   -12.0000 0 0 0
   79 1   -12.0000     4.8000    -9.6000 0 0 0
   80 1   -12.0000     4.8000    -7.2000 0 0 0
   81 1   -12.0000     4.8000    -4.8000 0 0 0
   82 1   -12.0000     4.8000    -2.4000 0 0 0
   83 1   -12.0000     4.8000     0.0000 0 0 0
   84 1   -12.0000     4.8000     2.4000 0 0 0
   85 1   -12.0000     4.8000     4.8000 0 0 0
   86 1   -12.0000     4.8000     7.2000 0 0 0
   87 1   -12.0000     4.8000     9.6000 0 0 0
   88 1   -12.0000     4.8000    12.0000 0 0 0
   89 1   -12.0000     7.2000   -12.0000 0 0 0
   90 1   -12.0000     7.2000    -9.6000 0 0 0
   91 1   -12.0000     7.2000    -7.2000 0 0 0
   92 1   -12.0000     7.2000    -4.8000 0 0 0
   93 1   -12.0000     7.2000    -2.4000 0 0 0
   94 1   -12.0000     7.2000     0.0000 0 0 0
   95 1   -12.0000     7.2000     2.4000 0 0 0
   96 1   -12.0000     7.2000     4.8000 0 0 0
   97 1   -12.0000     7.2000     7.2000 0 0 0
   98 1   -12.0000     7.2000     9.6000 0 0 0
   99 1   -12.0000     7.2000    12.0000 0 0 0
  100 1   -12.0000     9.6000   -12.0000 0 0 0
  101 1   -12.0000     9.6000    -9.6000 0 0 0
  102 1   -12.0000     9.6000    -7.2000 0 0 0
  103 1   -12.0000     9.6000    -4.8000 0 0 0
  104 1   -12.0000     9.6000    -2.4000 0 0 0
  105 1   -12.0000     9.6000     0.0000 0 0 0
  106 1   -12.0000     9.6000     2.4000 0 0 0
  107 1   -12.0000     9.6000     4.8000 0 0 0
  108 1   -12.0000     9.6000     7.2000 0 0 0
  109 1   -12.0000     9.6000     9.6000 0 0 0
  110 1   -12.0000     9.6000    12.0000 0 0 0
  111 1   -12.0000    12.0000   -12.0000 0 0 0
  112 1   -12.0000    12.0000    -9.6000 0 0 0
  113 1   -12.0000    12.0000    -7.2000 0 0 0
  114 1   -12.0000    12.0000    -4.8000 0 0 0
  115 1   -12.0000    12.0000    -2.4000 0 0 0
  116 1   -12.0000    12.0000     0.0000 0 0 0
  117 1   -12.0000    12.0000     2.4000 0 0 0
  118 1   -12.0000    12.0000     4.8000 0 0 0
  119 1   -12.0000    12.0000     7.2000 0 0 0
  120 1   -12.0000    12.0000     9.6000 0 0 0
  121 1   -12.0000    12.0000    12.0000 0 0 0
  122 1    -9.6000   -12.0000   -12.0000 0 0 0
  123 1    -9.6000   -12.0000    -9.6000 0 0 0
  124 1    -9.6000   -12.0000    -7.2000 0 0 0
  125 1    -9.6000   -12.0000    -4.8000 0 0 0
  126 1    -9.6000   -12.0000    -2.4000 0 0 0
  127 1    -9.6000   -12.0000     0.0000 0 0 0
  128 1    -9.6000   -12.0000     2.4000 0 0 0
  129 1    -9.6000   -12.0000     4.8000 0 0 0
  130 1    -9.6000   -12.0000     7.2000 0 0 0
  131 1    -9.6000   -12.0000     9.6000 0 0 0
  132 1    -9.6000   -12.0000    12.0000 0 0 0
  133 1    -9.6000    -9.6000   -12.0000 0 0 0
  134 1    -9.6000    -9.6000    -9.6000 0 0 0
  135 1    -9.6000    -9.6000    -7.2000 0 0 0
  136 1    -9.6000    -9.6000    -4.8000 0 0 0
  137 1    -9.6000    -9.6000    -2.4000 0 0 0
  138 1    -9.6000    -9.6000     0.0000 0 0 0
  139 1    -9.6000    -9.6000     2.4000 0 0 0
  140 1    -9.6000    -9.6000     4.8000 0 0 0
  141 1    -9.6000    -9.6000     7.2000 0 0 0
  142 1    -9.6000    -9.6000     9.6000 0 0 0
  143 1    -9.6000    -9.6000    12.0000 0 0 0
  144 1    -9.6000    -7.2000   -12.0000 0 0 0
  145 1    -9.6000    -7.2000    -9.6000 0 0 0
  146 1    -9.6000    -7.2000    -7.2000 0 0 0
  147 1    -9.6000    -7.2000    -4.8000 0 0 0
  148 1    -9.6000    -7.2000    -2.4000 0 0 0
  149 1    -9.6000    -7.2000     0.0000 0 0 0
  150 1    -9.6000    -7.2000     2.4000 0 0 0
  151 1    -9.6000    -7.2000     4.8000 0 0 0
  152 1    -9.6000    -7.2000     7.2000 0 0 0
  153 1    -9.6000    -7.2000     9.6000 0 0 0
  154 1    -9.6000    -7.2000    12.0000 0 0 0
  155 1    -9.6000    -4.8000   -12.0000 0 0 0
  156 1    -9.6000    -4.8000    -9.6000 0 0 0
  157 1    -9.6000    -4.8000    -7.2000 0 0 0
  158 1    -9.6000    -4.8000    -4.8000 0 0 0
  159 1    -9.6000    -4.8000    -2.4000 0 0 0
  160 1    -9.6000    -4.8000     0.0000 0 0 0
  161 1    -9.6000    -4.8000     2.4000 0 0 0
  162 1    -9.6000    -4.8000     4.8000 0 0 0
  163 1    -9.6000    -4.8000     7.2000 0 0 0
  164 1    -9.6000    -4.8000     9.6000 0 0 0
  165 1    -9.6000    -4.8000    12.0000 0 0 0
  166 1    -9.6000    -2.4000   -12.0000 0 0 0
  167 1    -9.6000    -2.4000    -9.6000 0 0 0
  168 1    -9.6000    -2.4000    -7.2000 0 0 0
  169 1    -9.6000    -2.4000    -4.8000 0 0 0
  170 1    -9.6000    -2.4000    -2.4000 0 0 0
  171 1    -9.6000    -2.4000     0.0000 0 0 0
  172 1    -9.6000    -2.4000     2.4000 0 0 0
  173 1    -9.6000    -2.4000     4.8000 0 0 0
  174 1    -9.6000    -2.4000     7.2000 0 0 0
  175 1    -9.6000    -2.4000     9.6000 0 0 0
  176 1    -9.6000    -2.4000    12.0000 0 0 0
  177 1    -9.6000     0.0000   -12.0000 0 0 0
  178 1    -9.6000     0.0000    -9.6000 0 0 0
  179 1    -9.6000     0.0000    -7.2000 0 0 0
  180 1    -9.6000     0.0000    -4.8000 0 0 0
  181 1    -9.6000     0.0000    -2.4000 0 0 0
  182 1    -9.6000     0.0000     0.0000 0 0 0
  183 1    -9.6000     0.0000     2.4000 0 0 0
  184 1    -9.6000     0.0000     4.8000 0 0 0
  185 1    -9.6000     0.0000     7.2000 0 0 0
  186 1    -9.6000     0.0000     9.6000 0 0 0
  187 1    -9.6000     0.0000    12.0000 0 0 0
  188 1    -9.6000     2.4000   -12.0000 0 0 0
  189 1    -9.6000     2.4000    -9.6000 0 0 0
  190 1    -9.6000     2.4000    -7.2000 0 0 0
  191 1    -9.6000     2.4000    -4.8000 0 0 0
  192 1    -9.6000     2.4000    -2.4000 0 0 0
  193 1    -9.6000     2.4000     0.0000 0 0 0
  194 1    -9.6000     2.4000     2.4000 0 0 0
  195 1    -9.6000     2.4000     4.8000 0 0 0
  196 1    -9.6000     2.4000     7.2000 0 0 0
  197 1    -9.6000     2.4000     9.6000 0 0 0
  198 1    -9.6000     2.4000    12.0000 0 0 0
  199 1    -9.6000     4.8000   -12.0000 0 0 0
  200 1    -9.6000     4.8000    -9.6000 0 0 0
  201 1    -9.6000     4.8000    -7.2000 0 0 0
  202 1    -9.6000     4.8000    -4.8000 0 0 0
  203 1    -9.6000     4.8000    -2.4000 0 0 0
  204 1    -9.6000     4.8000     0.0000 0 0 0
  205 1    -9.6000     4.8000     2.4000 0 0 0
  206 1    -9.6000     4.8000     4.8000 0 0 0
  207 1    -9.6000     4.8000     7.2000 0 0 0
  208 1    -9.6000     4.8000     9.6000 0 0 0
  209 1    -9.6000     4.8000    12.0000 0 0 0
  210 1    -9.6000     7.2000   -12.0000 0 0 0
  211 1    -9.6000     7.2000    -9.6000 0 0 0
  212 1    -9.6000     7.2000    -7.2000 0 0 0
  213 1    -9.6000     7.2000    -4.8000 0 0 0
  214 1    -9.6000     7.2000    -2.4000 0 0 0
  215 1    -9.6000     7.2000     0.0000 0 0 0
  216 1    -9.6000     7.2000     2.4000 0 0 0
  217 1    -9.6000     7.2000     4.8000 0 0 0
  218 1    -9.6000     7.2000     7.2000 0 0 0
  219 1    -9.6000     7.2000     9.6000 0 0 0
  220 1    -9.6000     7.2000    12.0000 0 0 0
  221 1    -9.6000     9.6000   -12.0000 0 0 0
  222 1    -9.6000     9.6000    -9.6000 0 0 0
  223 1    -9.6000     9.6000    -7.2000 0 0 0
  224 1    -9.6000     9.6000    -4.8000 0 0 0
  225 1    -9.6000     9.6000    -2.4000 0 0 0
  226 1    -9.6000     9.6000     0.0000 0 0 0
  227 1    -9.6000     9.6000     2.4000 0 0 0
  228 1    -9.6000     9.6000     4.8000 0 0 0
  229 1    -9.6000     9.6000     7.2000 0 0 0
  230 1    -9.6000     9.6000     9.6000 0 0 0
  231 1    -9.6000     9.6000    12.0000 0 0 0
  232 1    -9.6000    12.0000   -12.0000 0 0 0
  233 1    -9.6000    12.0000    -9.6000 0 0 0
  234 1    -9.6000    12.0000    -7.2000 0 0 0
  235 1    -9.6000    12.0000    -4.8000 0 0 0
  236 1    -9.6000    12.0000    -2.4000 0 0 0
  237 1    -9.6000    12.0000     0.0000 0 0 0
  238 1    -9.6000    12.0000     2.4000 0 0 0
  239 1    -9.6000    12.0000     4.8000 0 0 0
  240 1    -9.6000    12.0000     7.2000 0 0 0
  241 1    -9.6000    12.0000     9.6000 0 0 0
  242 1    -9.6000    12.0000    12.0000 0 0 0
  243 1    -7.2000   -12.0000   -12.0000 0 0 0
  244 1    -7.2000   -12.0000    -9.6000 0 0 0
  245 1    -7.2000   -12.0000    -7.2000 0 0 0
  246 1    -7.2000   -12.0000    -4.8000 0 0 0
  247 1    -7.2000   -12.0000    -2.4000 0 0 0
  248 1    -7.2000   -12.0000     0.0000 0 0 0
  249 1    -7.2000   -12.0000     2.4000 0 0 0
  250 1    -7.2000   -12.0000     4.8000 0 0 0
  251 1    -7.2000   -12.0000     7.2000 0 0 0
  252 1    -7.2000   -12.0000     9.6000 0 0 0
  253 1    -7.2000   -12.0000    12.0000 0 0 0
  254 1    -7.2000    -9.6000   -12.0000 0 0 0
  255 1    -7.2000    -9.6000    -9.6000 0 0 0
  256 1    -7.2000    -9.6000    -7.2000 0 0 0
  257 1    -7.2000    -9.6000    -4.8000 0 0 0
  258 1    -7.2000    -9.6000    -2.4000 0 0 0
  259 1    -7.2000    -9.6000     0.0000 0 0 0
  260 1    -7.2000    -9.6000     2.4000 0 0 0
  261 1    -7.2000    -9.6000     4.8000 0 0 0
  262 1    -7.2000    -9.6000     7.2000 0 0 0
  263 1    -7.2000    -9.6000     9.6000 0 0 0
  264 1    -7.2000    -9.6000    12.0000 0 0 0
  265 1    -7.2000    -7.2000   -12.0000 0 0 0
  266 1    -7.2000    -7.2000    -9.6000 0 0 0
  267 1    -7.2000    -7.2000    -7.2000 0 0 0
  268 1    -7.2000    -7.2000    -4.8000 0 0 0
  269 1    -7.2000    -7.2000    -2.4000 0 0 0
  270 1    -7.2000    -7.2000     0.0000 0 0 0
  271 1    -7.2000    -7.2000     2.4000 0 0 0
  272 1    -7.2000    -7.2000     4.8000 0 0 0
  273 1    -7.2000    -7.2000     7.2000 0 0 0
  274 1    -7.2000    -7.2000     9.6000 0 0 0
  275 1    -7.2000    -7.2000    12.0000 0 0 0
  276 1    -7.2000    -4.8000   -12.0000 0 0 0
  277 1    -7.2000    -4.8000    -9.6000 0 0 0
  278 1    -7.2000    -4.8000    -7.2000 0 0 0
  279 1    -7.2000    -4.8000    -4.8000 0 0 0
  280 1    -7.2000    -4.8000    -2.4000 0 0 0
  281 1    -7.2000    -4.8000     0.0000 0 0 0
  282 1    -7.2000    -4.8000     2.4000 0 0 0
  283 1    -7.2000    -4.8000     4.8000 0 0 0
  284 1    -7.2000    -4.8000     7.2000 0 0 0
  285 1    -7.2000    -4.8000     9.6000 0 0 0
  286 1    -7.2000    -4.8000    12.0000 0 0 0
  287 1    -7.2000    -2.4000   -12.0000 0 0 0
  288 1    -7.2000    -2.4000    -9.6000 0 0 0
  289 1    -7.2000    -2.4000    -7.2000 0 0 0
  290 1    -7.2000    -2.4000    -4.8000 0 0 0
  291 1    -7.2000    -2.4000    -2.4000 0 0 0
  292 1    -7.2000    -2.4000     0.0000 0 0 0
  293 1    -7.2000    -2.4000     2.4000 0 0 0
  294 1    -7.2000    -2.4000     4.8000 0 0 0
  295 1    -7.2000    -2.4000     7.2000 0 0 0
  296 1    -7.2000    -2.4000     9.6000 0 0 0
  297 1    -7.2000    -2.4000    12.0000 0 0 0
  298 1    -7.2000     0.0000   -12.0000 0 0 0
  299 1    -7.2000     0.0000    -9.6000 0 0 0
  300 1    -7.2000     0.0000    -7.2000 0 0 0
  301 1    -7.2000     0.0000    -4.8000 0 0 0
  302 1    -7.2000     0.0000    -2.4000 0 0 0
  303 1    -7.2000     0.0000     0.0000 0 0 0
  304 1    -7.2000     0.0000     2.4000 0 0 0
  305 1    -7.2000     0.0000     4.8000 0 0 0
  306 1    -7.2000     0.0000     7.2000 0 0 0
  307 1    -7.2000     0.0000     9.6000 0 0 0
  308 1    -7.2000     0.0000    12.0000 0 0 0
  309 1    -7.2000     2.4000   -12.0000 0 0 0
  310 1    -7.2000     2.4000    -9.6000 0 0 0
  311 1    -7.2000     2.4000    -7.2000 0 0 0
  312 1    -7.2000     2.4000    -4.8000 0 0 0
  313 1    -7.2000     2.4000    -2.4000 0 0 0
  314 1    -7.2000     2.4000     0.0000 0 0 0
  315 1    -7.2000     2.4000     2.4000 0 0 0
  316 1    -7.2000     2.4000     4.8000 0 0 0
  317 1    -7.2000     2.4000     7.2000 0 0 0
  318 1    -7.2000     2.4000     9.6000 0 0 0
  319 1    -7.2000     2.4000    12.0000 0 0 0
  320 1    -7.2000     4.8000   -12.0000 0 0 0
  321 1    -7.2000     4.8000    -9.6000 0 0 0
  322 1    -7.2000     4.8000    -7.2000 0 0 0
  323 1    -7.2000     4.8000    -4.8000 0 0 0
  324 1    -7.2000     4.8000    -2.4000 0 0 0
  325 1    -7.2000     4.8000     0.0000 0 0 0
  326 1    -7.2000     4.8000     2.4000 0 0 0
  327 1    -7.2000     4.8000     4.8000 0 0 0
  328 1    -7.2000     4.8000     7.2000 0 0 0
  329 1    -7.2000     4.8000     9.6000 0 0 0
  330 1    -7.2000     4.8000    12.0000 0 0 0
  331 1    -7.2000     7.2000   -12.0000 0 0 0
  332 1    -7.2000     7.2000    -9.6000 0 0 0
  333 1    -7.2000     7.2000    -7.2000 0 0 0
  334 1    -7.2000     7.2000    -4.8000 0 0 0
  335 1    -7.2000     7.2000    -2.4000 0 0 0
  336 1    -7.2000     7.2000     0.0000 0 0 0
  337 1    -7.2000     7.2000     2.4000 0 0 0
  338 1    -7.2000     7.2000     4.8000 0 0 0
  339 1    -7.2000     7.2000     7.2000 0 0 0
  340 1    -7.2000     7.2000     9.6000 0 0 0
  341 1    -7.2000     7.2000    12.0000 0 0 0
  342 1    -7.2000     9.6000   -12.0000 0 0 0
  343 1    -7.2000     9.6000    -9.6000 0 0 0
  344 1    -7.2000     9.6000    -7.2000 0 0 0
  345 1    -7.2000     9.6000    -4.8000 0 0 0
  346 1    -7.2000     9.6000    -2.4000 0 0 0
  347 1    -7.2000     9.6000     0.0000 0 0 0
  348 1    -7.2000     9.6000     2.4000 0 0 0
  349 1    -7.2000     9.6000     4.8000 0 0 0
  350 1    -7.2000     9.6000     7.2000 0 0 0
  351 1    -7.2000     9.6000     9.6000 0 0 0
  352 1    -7.2000     9.6000    12.0000 0 0 0
  353 1    -7.2000    12.0000   -12.0000 0 0 0
  354 1    -7.2000    12.0000    -9.6000 0 0 0
  355 1    -7.2000    12.0000    -7.2000 0 0 0
  356 1    -7.2000    12.0000    -4.8000 0 0 0
  357 1    -7.2000    12.0000    -2.4000 0 0 0
  358 1    -7.2000    12.0000     0.0000 0 0 0
  359 1    -7.2000    12.0000     2.4000 0 0 0
  360 1    -7.2000    12.0000     4.8000 0 0 0
  361 1    -7.2000    12.0000     7.2000 0 0 0
  362 1    -7.2000    12.0000     9.6000 0 0 0
  363 1    -7.2000    12.0000    12.0000 0 0 0
  364 1    -4.8000   -12.0000   -12.0000 0 0 0
  365 1    -4.8000   -12.0000    -9.6000 0 0 0
  366 1    -4.8000   -12.0000    -7.2000 0 0 0
  367 1    -4.8000   -12.0000    -4.8000 0 0 0
  368 1    -4.8000   -12.0000    -2.4000 0 0 0
  369 1    -4.8000   -12.0000     0.0000 0 0 0
  370 1    -4.8000   -12.0000     2.4000 0 0 0
  371 1    -4.8000   -12.0000     4.8000 0 0 0
  372 1    -4.8000   -12.0000     7.2000 0 0 0
  373 1    -4.8000   -12.0000     9.6000 0 0 0
  374 1    -4.8000   -12.0000    12.0000 0 0 0
  375 1    -4.8000    -9.6000   -12.0000 0 0 0
  376 1    -4.8000    -9.6000    -9.6000 0 0 0
  377 1    -4.8000    -9.6000    -7.2000 0 0 0
  378 1    -4.8000    -9.6000    -4.8000 0 0 0
  379 1    -4.8000    -9.6000    -2.4000 0 0 0
  380 1    -4.8000    -9.6000     0.0000 0 0 0
  381 1    -4.8000    -9.6000     2.4000 0 0 0
  382 1    -4.8000    -9.6000     4.8000 0 0 0
  383 1    -4.8000    -9.6000     7.2000 0 0 0
  384 1    -4.8000    -9.6000     9.6000 0 0 0
  385 1    -4.8000    -9.6000    12.0000 0 0 0
  386 1    -4.8000    -7.2000   -12.0000 0 0 0
  387 1    -4.8000    -7.2000    -9.6000 0 0 0
  388 1    -4.8000    -7.2000    -7.2000 0 0 0
  389 1    -4.8000    -7.2000    -4.8000 0 0 0
  390 1    -4.8000    -7.2000    -2.4000 0 0 0
  391 1    -4.8000    -7.2000     0.0000 0 0 0
  392 1    -4.8000    -7.2000     2.4000 0 0 0
  393 1    -4.8000    -7.2000     4.8000 0 0 0
  394 1    -4.8000    -7.2000     7.2000 0 0 0
  395 1    -4.8000    -7.2000     9.6000 0 0 0
  396 1    -4.8000    -7.2000    12.0000 0 0 0
  397 1    -4.8000    -4.8000   -12.0000 0 0 0
  398 1    -4.8000    -4.8000    -9.6000 0 0 0
  399 1    -4.8000    -4.8000    -7.2000 0 0 0
  400 1    -4.8000    -4.8000    -4.8000 0 0 0
  401 1    -4.8000    -4.8000    -2.4000 0 0 0
  402 1    -4.8000    -4.8000     0.0000 0 0 0
  403 1    -4.8000    -4.8000     2.4000 0 0 0
  404 1    -4.8000    -4.8000     4.8000 0 0 0
  405 1    -4.8000    -4.8000     7.2000 0 0 0
  406 1    -4.8000    -4.8000     9.6000 0 0 0
  407 1    -4.8000    -4.8000    12.0000 0 0 0
  408 1    -4.8000    -2.4000   -12.0000 0 0 0
  409 1    -4.8000    -2.4000    -9.6000 0 0 0
  410 1    -4.8000    -2.4000    -7.2000 0 0 0
  411 1    -4.8000    -2.4000    -4.8000 0 0 0
  412 1    -4.8000    -2.4000    -2.4000 0 0 0
  413 1    -4.8000    -2.4000     0.0000 0 0 0
  414 1    -4.8000    -2.4000     2.4000 0 0 0
  415 1    -4.8000    -2.4000     4.8000 0 0 0
  416 1    -4.8000    -2.4000     7.2000 0 0 0
  417 1    -4.8000    -2.4000     9.6000 0 0 0
  418 1    -4.8000    -2.4000    12.0000 0 0 0
  419 1    -4.8000     0.0000   -12.0000 0 0 0
  420 1    -4.8000     0.0000    -9.6000 0 0 0
  421 1    -4.8000     0.0000    -7.2000 0 0 0
  422 1    -4.8000     0.0000    -4.8000 0 0 0
  423 1    -4.8000     0.0000    -2.4000 0 0 0
  424 1    -4.8000     0.0000     0.0000 0 0 0
  425 1    -4.8000     0.0000     2.4000 0 0 0
  426 1    -4.8000     0.0000     4.8000 0 0 0
  427 1    -4.8000     0.0000     7.2000 0 0 0
  428 1    -4.8000     0.0000     9.6000 0 0 0
  429 1    -4.8000     0.0000    12.0000 0 0 0
  430 1    -4.8000     2.4000   -12.0000 0 0 0
  431 1    -4.8000     2.4000    -9.6000 0 0 0
  432 1    -4.8000     2.4000    -7.2000 0 0 0
  433 1    -4.8000     2.4000    -4.8000 0 0 0
  434 1    -4.8000     2.4000    -2.4000 0 0 0
  435 1    -4.8000     2.4000     0.0000 0 0 0
  436 1    -4.8000     2.4000     2.4000 0 0 0
  437 1    -4.8000     2.4000     4.8000 0 0 0
  438 1    -4.8000     2.4000     7.2000 0 0 0
  439 1    -4.8000     2.4000     9.6000 0 0 0
  440 1    -4.8000     2.4000    12.0000 0 0 0
  441 1    -4.8000     4.8000   -12.0000 0 0 0
  442 1    -4.8000     4.8000    -9.6000 0 0 0
  443 1    -4.8000     4.8000    -7.2000 0 0 0
  444 1    -4.8000     4.8000    -4.8000 0 0 0
  445 1    -4.8000     4.8000    -2.4000 0 0 0
  446 1    -4.8000     4.8000     0.0000 0 0 0
  447 1    -4.8000     4.8000     2.4000 0 0 0
  448 1    -4.8000     4.8000     4.8000 0 0 0
  449 1    -4.8000     4.8000     7.2000 0 0 0
  450 1    -4.8000     4.8000     9.6000 0 0 0
  451 1    -4.8000     4.8000    12.0000 0 0 0
  452 1    -4.8000     7.2000   -12.0000 0 0 0
  453 1    -4.8000     7.2000    -9.6000 0 0 0
  454 1    -4.8000     7.2000    -7.2000 0 0 0
  455 1    -4.8000     7.2000    -4.8000 0 0 0
  456 1    -4.8000     7.2000    -2.4000 0 0 0
  457 1    -4.8000     7.2000     0.0000 0 0 0
  458 1    -4.8000     7.2000     2.4000 0 0 0
  459 1    -4.8000     7.2000     4.8000 0 0 0
  460 1    -4.8000     7.2000     7.2000 0 0 0
  461 1    -4.8000     7.2000     9.6000 0 0 0
  462 1    -4.8000     7.2000    12.0000 0 0 0
  463 1    -4.8000     9.6000   -12.0000 0 0 0
  464 1    -4.8000     9.6000    -9.6000 0 0 0
  465 1    -4.8000     9.6000    -7.2000 0 0 0
  466 1    -4.8000     9.6000    -4.8000 0 0 0
  467 1    -4.8000     9.6000    -2.4000 0 0 0
  468 1    -4.8000     9.6000     0.0000 0 0 0
  469 1    -4.8000     9.6000     2.4000 0 0 0
  470 1    -4.8000     9.6000     4.8000 0 0 0
  471 1    -4.8000     9.6000     7.2000 0 0 0
  472 1    -4.8000     9.6000     9.6000 0 0 0
  473 1    -4.8000     9.6000    12.0000 0 0 0
  474 1    -4.8000    12.0000   -12.0000 0 0 0
  475 1    -4.8000    12.0000    -9.6000 0 0 0
  476 1    -4.8000    12.0000    -7.2000 0 0 0
  477 1    -4.8000    12.0000    -4.8000 0 0 0
  478 1    -4.8000    12.0000    -2.4000 0 0 0
  479 1    -4.8000    12.0000     0.0000 0 0 0
  480 1    -4.8000    12.0000     2.4000 0 0 0
  481 1    -4.8000    12.0000     4.8000 0 0 0
  482 1    -4.8000    12.0000     7.2000 0 0 0
  483 1    -4.8000    12.0000     9.6000 0 0 0
  484 1    -4.8000    12.0000    12.0000 0 0 0
  485 1    -2.4000   -12.0000   -12.0000 0 0 0
  486 1    -2.4000   -12.0000    -9.6000 0 0 0
  487 1    -2.4000   -12.0000    -7.2000 0 0 0
  488 1    -2.4000   -12.0000    -4.8000 0 0 0
  489 1    -2.4000   -12.0000    -2.4000 0 0 0
  490 1    -2.4000   -12.0000     0.0000 0 0 0
  491 1    -2.4000   -12.0000     2.4000 0 0 0
  492 1    -2.4000   -12.0000     4.8000 0 0 0
  493 1    -2.4000   -12.0000     7.2000 0 0 0
  494 1    -2.4000   -12.0000     9.6000 0 0 0
  495 1    -2.4000   -12.0000    12.0000 0 0 0
  496 1    -2.4000    -9.6000   -12.0000 0 0 0
  497 1    -2.4000    -9.6000    -9.6000 0 0 0
  498 1    -2.4000    -9.6000    -7.2000 0 0 0
  499 1    -2.4000    -9.6000    -4.8000 0 0 0
  500 1    -2.4000    -9.6000    -2.4000 0 0 0
  501 1    -2.4000    -9.6000     0.0000 0 0 0
  502 1    -2.4000    -9.6000     2.4000 0 0 0
  503 1    -2.4000    -9.6000     4.8000 0 0 0
  504 1    -2.4000    -9.6000     7.2000 0 0 0
  505 1    -2.4000    -9.6000     9.6000 0 0 0
  506 1    -2.4000    -9.6000    12.0000 0 0 0
  507 1    -2.4000    -7.2000   -12.0000 0 0 0
  508 1    -2.4000    -7.2000    -9.6000 0 0 0
  509 1    -2.4000    -7.2000    -7.2000 0 0 0
  510 1    -2.4000    -7.2000    -4.8000 0 0 0
  511 1    -2.4000    -7.2000    -2.4000 0 0 0
  512 1    -2.4000    -7.2000     0.0000 0 0 0
  513 1    -2.4000    -7.2000     2.4000 0 0 0
  514 1    -2.4000    -7.2000     4.8000 0 0 0
  515 1    -2.4000    -7.2000     7.2000 0 0 0
  516 1    -2.4000    -7.2000     9.6000 0 0 0
  517 1    -2.4000    -7.2000    12.0000 0 0 0
  518 1    -2.4000    -4.8000   -12.0000 0 0 0
  519 1    -2.4000    -4.8000    -9.6000 0 0 0
  520 1    -2.4000    -4.8000    -7.2000 0 0 0
  521 1    -2.4000    -4.8000    -4.8000 0 0 0
  522 1    -2.4000    -4.8000    -2.4000 0 0 0
  523 1    -2.4000    -4.8000     0.0000 0 0 0
  524 1    -2.4000    -4.8000     2.4000 0 0 0
  525 1    -2.4000    -4.8000     4.8000 0 0 0
  526 1    -2.4000    -4.8000     7.2000 0 0 0
  527 1    -2.4000    -4.8000     9.6000 0 0 0
  528 1    -2.4000    -4.8000    12.0000 0 0 0
  529 1    -2.4000    -2.4000   -12.0000 0 0 0
  530 1    -2.4000    -2.4000    -9.6000 0 0 0
  531 1    -2.4000    -2.4000    -7.2000 0 0 0
  532 1    -2.4000    -2.4000    -4.8000 0 0 0
  533 1    -2.4000    -2.4000    -2.4000 0 0 0
  534 1    -2.4000    -2.4000     0.0000 0 0 0
  535 1    -2.4000    -2.4000     2.4000 0 0 0
  536 1    -2.4000    -2.4000     4.8000 0 0 0
  537 1    -2.4000    -2.4000     7.2000 0 0 0
  538 1    -2.4000    -2.4000     9.6000 0 0 0
  539 1    -2.4000    -2.4000    12.0000 0 0 0
  540 1    -2.4000     0.0000   -12.0000 0 0 0
  541 1    -2.4000     0.0000    -9.6000 0 0 0
  542 1    -2.4000     0.0000    -7.2000 0 0 0
  543 1    -2.4000     0.0000    -4.8000 0 0 0
  544 1    -2.4000     0.0000    -2.4000 0 0 0
  545 1    -2.4000     0.0000     0.0000 0 0 0
  546 1    -2.4000     0.0000     2.4000 0 0 0
  547 1    -2.4000     0.0000     4.8000 0 0 0
  548 1    -2.4000     0.0000     7.2000 0 0 0
  549 1    -2.4000     0.0000     9.6000 0 0 0
  550 1    -2.4000     0.0000    12.0000 0 0 0
  551 1    -2.4000     2.4000   -12.0000 0 0 0
  552 1    -2.4000     2.4000    -9.6000 0 0 0
  553 1    -2.4000     2.4000    -7.2000 0 0 0
  554 1    -2.4000     2.4000    -4.8000 0 0 0
  555 1    -2.4000     2.4000    -2.4000 0 0 0
  556 1    -2.4000     2.4000     0.0000 0 0 0
  557 1    -2.4000     2.4000     2.4000 0 0 0
  558 1    -2.4000     2.4000     4.8000 0 0 0
  559 1    -2.4000     2.4000     7.2000 0 0 0
  560 1    -2.4000     2.4000     9.6000 0 0 0
  561 1    -2.4000     2.4000    12.0000 0 0 0
  562 1    -2.4000     4.8000   -12.0000 0 0 0
  563 1    -2.4000     4.8000    -9.6000 0 0 0
  564 1    -2.4000     4.8000    -7.2000 0 0 0
  565 1    -2.4000     4.8000    -4.8000 0 0 0
  566 1    -2.4000     4.8000    -2.4000 0 0 0
  567 1    -2.4000     4.8000     0.0000 0 0 0
  568 1    -2.4000     4.8000     2.4000 0 0 0
  569 1    -2.4000     4.8000     4.8000 0 0 0
  570 1    -2.4000     4.8000     7.2000 0 0 0
  571 1    -2.4000     4.8000     9.6000 0 0 0
  572 1    -2.4000     4.8000    12.0000 0 0 0
  573 1    -2.4000     7.2000   -12.0000 0 0 0
  574 1    -2.4000     7.2000    -9.6000 0 0 0
  575 1    -2.4000     7.2000    -7.2000 0 0 0
  576 1    -2.4000     7.2000    -4.8000 0 0 0
  577 1    -2.4000     7.2000    -2.4000 0 0 0
  578 1    -2.4000     7.2000     0.0000 0 0 0
  579 1    -2.4000     7.2000     2.4000 0 0 0
  580 1    -2.4000     7.2000     4.8000 0 0 0
  581 1    -2.4000     7.2000     7.2000 0 0 0
  582 1    -2.4000     7.2000     9.6000 0 0 0
  583 1    -2.4000     7.2000    12.0000 0 0 0
  584 1    -2.4000     9.6000   -12.0000 0 0 0
  585 1    -2.4000     9.6000    -9.6000 0 0 0
  586 1    -2.4000     9.6000    -7.2000 0 0 0
  587 1    -2.4000     9.6000    -4.8000 0 0 0
  588 1    -2.4000     9.6000    -2.4000 0 0 0
  589 1    -2.4000     9.6000     0.0000 0 0 0
  590 1    -2.4000     9.6000     2.4000 0 0 0
  591 1    -2.4000     9.6000     4.8000 0 0 0
  592 1    -2.4000     9.6000     7.2000 0 0 0
  593 1    -2.4000     9.6000     9.6000 0 0 0
  594 1    -2.4000     9.6000    12.0000 0 0 0
  595 1    -2.4000    12.0000   -12.0000 0 0 0
  596 1    -2.4000    12.0000    -9.6000 0 0 0
  597 1    -2.4000    12.0000    -7.2000 0 0 0
  598 1    -2.4000    12.0000    -4.8000 0 0 0
  599 1    -2.4000    12.0000    -2.4000 0 0 0
  600 1    -2.4000    12.0000     0.0000 0 0 0
  601 1    -2.4000    12.0000     2.4000 0 0 0
  602 1    -2.4000    12.0000     4.8000 0 0 0
  603 1    -2.4000    12.0000     7.2000 0 0 0
  604 1    -2.4000    12.0000     9.6000 0 0 0
  605 1    -2.4000    12.0000    12.0000 0 0 0
  606 1     0.0000   -12.0000   -12.0000 0 0 0
  607 1     0.0000   -12.0000    -9.6000 0 0 0
  608 1     0.0000   -12.0000    -7.2000 0 0 0
  609 1     0.0000   -12.0000    -4.8000 0 0 0
  610 1     0.0000   -12.0000    -2.4000 0 0 0
  611 1     0.0000   -12.0000     0.0000 0 0 0
  612 1     0.0000   -12.0000     2.4000 0 0 0
  613 1     0.0000   -12.0000     4.8000 0 0 0
  614 1     0.0000   -12.0000     7.2000 0 0 0
  615 1     0.0000   -12.0000     9.6000 0 0 0
  616 1     0.0000   -12.0000    12.0000 0 0 0
  617 1     0.0000    -9.6000   -12.0000 0 0 0
  618 1     0.0000    -9.6000    -9.6000 0 0 0
  619 1     0.0000    -9.6000    -7.2000 0 0 0
  620 1     0.0000    -9.6000    -4.8000 0 0 0
  621 1     0.0000    -9.6000    -2.4000 0 0 0
  622 1     0.0000    -9.6000     0.0000 0 0 0
  623 1     0.0000    -9.6000     2.4000 0 0 0
  624 1     0.0000    -9.6000     4.8000 0 0 0
  625 1     0.0000    -9.6000     7.2000 0 0 0
  626 1     0.0000    -9.6000     9.6000 0 0 0
  627 1     0.0000    -9.6000    12.0000 0 0 0
  628 1     0.0000    -7.2000   -12.0000 0 0 0
  629 1     0.0000    -7.2000    -9.6000 0 0 0
  630 1     0.0000    -7.2000    -7.2000 0 0 0
  631 1     0.0000    -7.2000    -4.8000 0 0 0
  632 1     0.0000    -7.2000    -2.4000 0 0 0
  633 1     0.0000    -7.2000     0.0000 0 0 0
  634 1     0.0000    -7.2000     2.4000 0 0 0